 Q-Chem 5.4, Q-Chem, Inc., Pleasanton, CA (2021)
 Q-Chem 5.4.0 for Intel X86 EM64T Linux

User input:
--------------------------------------------------------------
$molecule
0 1
C  -7.37534686285563e-01 -8.53434950327613e-03 -2.81906492485253e-02
H  -1.12236262328556e+00  1.00176999194672e+00 -1.59435260248525e-01
H  -1.12359629328556e+00 -6.26685286053276e-01 -8.45884129248525e-01
H  -1.14691032328556e+00 -3.91600228053276e-01  9.05480972751475e-01
N   7.17942904714437e-01  4.38022037467239e-02  7.38841188514747e-02
H   1.09098955671444e+00 -8.90050888053276e-01  1.97293805751475e-01
H   1.11368806671444e+00  3.99590818946724e-01 -7.88226187248525e-01
C   3.92624653137144e+01 -8.53434950327613e-03 -2.81906492485253e-02
H   3.88776373767144e+01  1.00176999194672e+00 -1.59435260248525e-01
H   3.88764037067144e+01 -6.26685286053276e-01 -8.45884129248525e-01
H   3.88530896767144e+01 -3.91600228053276e-01  9.05480972751475e-01
N   4.07179429047144e+01  4.38022037467239e-02  7.38841188514747e-02
H   4.10909895567144e+01 -8.90050888053276e-01  1.97293805751475e-01
H   4.11136880667144e+01  3.99590818946724e-01 -7.88226187248525e-01
$end

$rem
jobtype sp
method wb97m-v
basis aug-cc-pVTZ
GEOM_OPT_MAX_CYCLES 10000
MEM_TOTAL 32000
CM5 true
DFTVDW_JOBNUMBER 1
DFTVDW_METHOD 1
DFTVDW_PRINT 2
MM_CHARGES true
symmetry false
sym_ignore true
no_reorient true
$end
--------------------------------------------------------------

             Standard Nuclear Orientation (Angstroms)
    I     Atom           X                Y                Z
 ----------------------------------------------------------------
    1      C      -0.7375346863    -0.0085343495    -0.0281906492
    2      H      -1.1223626233     1.0017699919    -0.1594352602
    3      H      -1.1235962933    -0.6266852861    -0.8458841292
    4      H      -1.1469103233    -0.3916002281     0.9054809728
    5      N       0.7179429047     0.0438022037     0.0738841189
    6      H       1.0909895567    -0.8900508881     0.1972938058
    7      H       1.1136880667     0.3995908189    -0.7882261872
    8      C      39.2624653137    -0.0085343495    -0.0281906492
    9      H      38.8776373767     1.0017699919    -0.1594352602
   10      H      38.8764037067    -0.6266852861    -0.8458841292
   11      H      38.8530896767    -0.3916002281     0.9054809728
   12      N      40.7179429047     0.0438022037     0.0738841189
   13      H      41.0909895567    -0.8900508881     0.1972938058
   14      H      41.1136880667     0.3995908189    -0.7882261872
 ----------------------------------------------------------------

    8    -191.6749603160      3.14E-06 Convergence criterion met
 Total energy in the final basis set = -191.68464933

                    Orbital Energies (a.u.)
 --------------------------------------------------------------

 Alpha MOs
 -- Occupied --
-14.4839 -14.4839 -10.3549 -10.3548  -1.0002  -1.0002  -0.7768  -0.7768
 -0.5973  -0.5973  -0.5449  -0.5448  -0.5051  -0.5051  -0.4665  -0.4664
 -0.3432  -0.3431

          Ground-State Mulliken Net Atomic Charges

     Atom                 Charge (a.u.)
  ----------------------------------------
      1 C                    -0.747351
      2 H                     0.325268
      3 H                     0.307341
      4 H                     0.323283
      5 N                    -0.432367
      6 H                     0.112316
      7 H                     0.111509
      8 C                    -0.747351
      9 H                     0.325268
     10 H                     0.307342
     11 H                     0.323282
     12 N                    -0.432367
     13 H                     0.112316
     14 H                     0.111509
  ----------------------------------------
  Sum of atomic charges =     0.000000

                    Cartesian Multipole Moments
 -----------------------------------------------------------------
    Charge (ESU x 10^10)
                 0.0000
    Dipole Moment (Debye)
         X      -0.5870      Y      -1.5902      Z      -2.0951
       Tot       2.6949
    Quadrupole Moments (Debye-Ang)
        XX     -52.2374     XY     -34.2199     YY     -27.6867
        XZ     -45.1360     YZ      -2.5763     ZZ     -29.2061

 Total job time:  156.31s(wall), 722.77s(cpu)
        *  Thank you very much for using Q-Chem.  Have a nice day.  *
