 Q-Chem 5.4, Q-Chem, Inc., Pleasanton, CA (2021)
 Q-Chem 5.4.0 for Intel X86 EM64T Linux

User input:
--------------------------------------------------------------
$molecule
0 1
C  -7.37534686285563e-01 -8.53434950327613e-03 -2.81906492485253e-02
H  -1.12236262328556e+00  1.00176999194672e+00 -1.59435260248525e-01
H  -1.12359629328556e+00 -6.26685286053276e-01 -8.45884129248525e-01
H  -1.14691032328556e+00 -3.91600228053276e-01  9.05480972751475e-01
N   7.17942904714437e-01  4.38022037467239e-02  7.38841188514747e-02
H   1.09098955671444e+00 -8.90050888053276e-01  1.97293805751475e-01
H   1.11368806671444e+00  3.99590818946724e-01 -7.88226187248525e-01
O   3.99470159499399e+01  3.90530284000666e-02  0.00000000000000e+00
H   3.99687010003398e+01 -9.22838288799933e-01  0.00000000000000e+00
H   4.08722631037398e+01  3.02987692200067e-01  0.00000000000000e+00
$end

$rem
jobtype sp
method wb97m-v
basis aug-cc-pVTZ
GEOM_OPT_MAX_CYCLES 10000
MEM_TOTAL 32000
CM5 true
DFTVDW_JOBNUMBER 1
DFTVDW_METHOD 1
DFTVDW_PRINT 2
MM_CHARGES true
symmetry false
sym_ignore true
no_reorient true
$end
--------------------------------------------------------------

             Standard Nuclear Orientation (Angstroms)
    I     Atom           X                Y                Z
 ----------------------------------------------------------------
    1      C      -0.7375346863    -0.0085343495    -0.0281906492
    2      H      -1.1223626233     1.0017699919    -0.1594352602
    3      H      -1.1235962933    -0.6266852861    -0.8458841292
    4      H      -1.1469103233    -0.3916002281     0.9054809728
    5      N       0.7179429047     0.0438022037     0.0738841189
    6      H       1.0909895567    -0.8900508881     0.1972938058
    7      H       1.1136880667     0.3995908189    -0.7882261872
    8      O      39.9470159499     0.0390530284     0.0000000000
    9      H      39.9687010003    -0.9228382888     0.0000000000
   10      H      40.8722631037     0.3029876922     0.0000000000
 ----------------------------------------------------------------

    9    -172.2681319549      2.76E-06 Convergence criterion met
 Total energy in the final basis set = -172.27417119

                    Orbital Energies (a.u.)
 --------------------------------------------------------------

 Alpha MOs
 -- Occupied --
-19.3402 -14.4838 -10.3548  -1.1434  -1.0001  -0.7767  -0.6413  -0.5972
 -0.5448  -0.5050  -0.5037  -0.4663  -0.4280  -0.3430

          Ground-State Mulliken Net Atomic Charges

     Atom                 Charge (a.u.)
  ----------------------------------------
      1 C                    -0.747770
      2 H                     0.325477
      3 H                     0.307438
      4 H                     0.323364
      5 N                    -0.432419
      6 H                     0.112357
      7 H                     0.111552
      8 O                    -0.397245
      9 H                     0.198655
     10 H                     0.198590
  ----------------------------------------
  Sum of atomic charges =     0.000000

                    Cartesian Multipole Moments
 -----------------------------------------------------------------
    Charge (ESU x 10^10)
                 0.0000
    Dipole Moment (Debye)
         X       1.2006      Y      -1.8955      Z      -1.0474
       Tot       2.4762
    Quadrupole Moments (Debye-Ang)
        XX      99.4408     XY     -44.3610     YY     -18.9746
        XZ      -1.6161     YZ      -1.2880     ZZ     -22.4409

 Total job time:  115.24s(wall), 422.31s(cpu)
        *  Thank you very much for using Q-Chem.  Have a nice day.  *
