 Q-Chem 5.4, Q-Chem, Inc., Pleasanton, CA (2021)
 Q-Chem 5.4.0 for Intel X86 EM64T Linux

User input:
--------------------------------------------------------------
$molecule
0 1
C  -7.37711933000000e-01 -8.53469145000000e-03 -2.81951880000000e-02
H  -1.12253987000000e+00  1.00176965000000e+00 -1.59439799000000e-01
H  -1.12377354000000e+00 -6.26685628000000e-01 -8.45888668000000e-01
H  -1.14708757000000e+00 -3.91600570000000e-01  9.05476434000000e-01
N   7.17765658000000e-01  4.38018618000000e-02  7.38795801000000e-02
H   1.09081231000000e+00 -8.90051230000000e-01  1.97289267000000e-01
H   1.11351082000000e+00  3.99590477000000e-01 -7.88230726000000e-01
$end

$rem
jobtype sp
method wb97m-v
basis aug-cc-pVTZ
GEOM_OPT_MAX_CYCLES 10000
MEM_TOTAL 32000
CM5 true
DFTVDW_JOBNUMBER 1
DFTVDW_METHOD 1
DFTVDW_PRINT 2
MM_CHARGES true
symmetry false
sym_ignore true
no_reorient true
$end
--------------------------------------------------------------

             Standard Nuclear Orientation (Angstroms)
    I     Atom           X                Y                Z
 ----------------------------------------------------------------
    1      C      -0.7377119330    -0.0085346914    -0.0281951880
    2      H      -1.1225398700     1.0017696500    -0.1594397990
    3      H      -1.1237735400    -0.6266856280    -0.8458886680
    4      H      -1.1470875700    -0.3916005700     0.9054764340
    5      N       0.7177656580     0.0438018618     0.0738795801
    6      H       1.0908123100    -0.8900512300     0.1972892670
    7      H       1.1135108200     0.3995904770    -0.7882307260
 ----------------------------------------------------------------

    8     -95.8374804351      4.44E-06 Convergence criterion met
 Total energy in the final basis set = -95.84232494

                    Orbital Energies (a.u.)
 --------------------------------------------------------------

 Alpha MOs
 -- Occupied --
-14.4839 -10.3548  -1.0002  -0.7768  -0.5973  -0.5448  -0.5051  -0.4664
 -0.3431

          Ground-State Mulliken Net Atomic Charges

     Atom                 Charge (a.u.)
  ----------------------------------------
      1 C                    -0.747355
      2 H                     0.325268
      3 H                     0.307344
      4 H                     0.323280
      5 N                    -0.432366
      6 H                     0.112319
      7 H                     0.111510
  ----------------------------------------
  Sum of atomic charges =     0.000000

                    Cartesian Multipole Moments
 -----------------------------------------------------------------
    Charge (ESU x 10^10)
                 0.0000
    Dipole Moment (Debye)
         X      -0.2934      Y      -0.7951      Z      -1.0476
       Tot       1.3475
    Quadrupole Moments (Debye-Ang)
        XX     -14.3795     XY      -1.2080     YY     -13.8434
        XZ      -1.6171     YZ      -1.2882     ZZ     -14.6031

 Total job time:  97.18s(wall), 331.39s(cpu)
        *  Thank you very much for using Q-Chem.  Have a nice day.  *
