 Q-Chem 5.4, Q-Chem, Inc., Pleasanton, CA (2021)
 Q-Chem 5.4.0 for Intel X86 EM64T Linux

User input:
--------------------------------------------------------------
$molecule
0 1
O  -5.29878988000000e-02  3.90558652000000e-02  0.00000000000000e+00
H  -3.13028484000000e-02 -9.22835452000000e-01  0.00000000000000e+00
H   8.72259255000000e-01  3.02990529000000e-01  0.00000000000000e+00
$end

$rem
jobtype sp
method wb97m-v
basis aug-cc-pVTZ
GEOM_OPT_MAX_CYCLES 10000
MEM_TOTAL 32000
CM5 true
DFTVDW_JOBNUMBER 1
DFTVDW_METHOD 1
DFTVDW_PRINT 2
MM_CHARGES true
symmetry false
sym_ignore true
no_reorient true
$end
--------------------------------------------------------------

             Standard Nuclear Orientation (Angstroms)
    I     Atom           X                Y                Z
 ----------------------------------------------------------------
    1      O      -0.0529878988     0.0390558652     0.0000000000
    2      H      -0.0313028484    -0.9228354520     0.0000000000
    3      H       0.8722592550     0.3029905290     0.0000000000
 ----------------------------------------------------------------

    8     -76.4306520990      2.94E-06 Convergence criterion met
 Total energy in the final basis set = -76.43184684

                    Orbital Energies (a.u.)
 --------------------------------------------------------------

 Alpha MOs
 -- Occupied --
-19.3402  -1.1435  -0.6413  -0.5037  -0.4281

          Ground-State Mulliken Net Atomic Charges

     Atom                 Charge (a.u.)
  ----------------------------------------
      1 O                    -0.397316
      2 H                     0.198691
      3 H                     0.198625
  ----------------------------------------
  Sum of atomic charges =     0.000000

                    Cartesian Multipole Moments
 -----------------------------------------------------------------
    Charge (ESU x 10^10)
                -0.0000
    Dipole Moment (Debye)
         X       1.4936      Y      -1.1006      Z      -0.0000
       Tot       1.8553
    Quadrupole Moments (Debye-Ang)
        XX      -5.6702     XY       0.8701     YY      -5.1313
        XZ      -0.0000     YZ      -0.0000     ZZ      -7.8377

 Total job time:  28.50s(wall), 85.32s(cpu)
        *  Thank you very much for using Q-Chem.  Have a nice day.  *
